/*--------------------------------*- C++ -*----------------------------------*\
| =========                 |                                                 |
| \\      /  F ield         | OpenFOAM: The Open Source CFD Toolbox           |
|  \\    /   O peration     | Version:  2306                                  |
|   \\  /    A nd           | Website:  www.openfoam.com                      |
|    \\/     M anipulation  |                                                 |
\*---------------------------------------------------------------------------*/
FoamFile
{
    version     2.0;
    format      ascii;
    arch        "LSB;label=32;scalar=64";
    class       polyBoundaryMesh;
    location    "constant/polyMesh";
    object      boundary;
}
// * * * * * * * * * * * * * * * * * * * * * * * * * * * * * * * * * * * * * //

4
(
    inlet
    {
        type            patch;
        nFaces          10;
        startFace       1692;
    }
    outlet
    {
        type            patch;
        nFaces          10;
        startFace       1702;
    }
    fixedWalls
    {
        type            wall;
        inGroups        1(wall);
        nFaces          116;
        startFace       1712;
    }
    frontAndBack
    {
        type            empty;
        inGroups        1(empty);
        nFaces          1760;
        startFace       1828;
    }
)

// ************************************************************************* //
