/*--------------------------------*- C++ -*----------------------------------*\
| =========                 |                                                 |
| \\      /  F ield         | OpenFOAM: The Open Source CFD Toolbox           |
|  \\    /   O peration     | Version:  2306                                  |
|   \\  /    A nd           | Website:  www.openfoam.com                      |
|    \\/     M anipulation  |                                                 |
\*---------------------------------------------------------------------------*/
FoamFile
{
    version     2.0;
    format      ascii;
    arch        "LSB;label=32;scalar=64";
    class       polyBoundaryMesh;
    location    "constant/polyMesh";
    object      boundary;
}
// * * * * * * * * * * * * * * * * * * * * * * * * * * * * * * * * * * * * * //

5
(
    frontandbacksides
    {
        type            wall;
        inGroups        1(wall);
        nFaces          58528;
        startFace       2318754;
    }
    walls
    {
        type            wall;
        inGroups        1(wall);
        nFaces          11920;
        startFace       2377282;
    }
    cylinder
    {
        type            wall;
        inGroups        1(wall);
        nFaces          2078;
        startFace       2389202;
    }
    outlet
    {
        type            patch;
        nFaces          4702;
        startFace       2391280;
    }
    inlet
    {
        type            patch;
        nFaces          4708;
        startFace       2395982;
    }
)

// ************************************************************************* //
